Run test for Bamboo model

4116 atoms

6 atom types

0 35.9208 xlo xhi
0 35.9208 ylo yhi
0 35.9208 zlo zhi

Masses

1 1.008 # H
2 6.941 # LI
3 12.011 # C
4 15.9994 # O
5 18.998 # F
6 30.974 # P

Atoms

1 1 3 -0.1327 24.43 4.21 21.72 # C 
2 1 4 -0.3806 25.34 3.16 21.88 # O 
3 1 3 0.9238 25.58 2.3 20.99 # C 
4 1 4 -0.5758 25.02 2.38 19.84 # O 
5 1 4 -0.3806 26.57 1.41 21.15 # O 
6 1 3 -0.1327 27.01 0.7 19.97 # C 
7 1 1 0.1131 24.66 5.04 22.39 # H 
8 1 1 0.1131 23.42 3.81 21.73 # H 
9 1 1 0.1131 24.63 4.6 20.72 # H 
10 1 1 0.1131 27.8 -0.02 20.24 # H 
11 1 1 0.1131 27.38 1.43 19.25 # H 
12 1 1 0.1131 26.26 0.12 19.44 # H 
13 2 3 -0.1327 16.73 5.43 35.26 # C 
14 2 4 -0.3806 16.83 6.42 34.25 # O 
15 2 3 0.9238 17.75 6.37 33.21 # C 
16 2 4 -0.5758 18.54 5.42 33.15 # O 
17 2 4 -0.3806 17.65 7.42 32.33 # O 
18 2 3 -0.1327 18.75 7.65 31.45 # C 
19 2 1 0.1131 16.73 4.5 34.7 # H 
20 2 1 0.1131 15.87 5.47 35.93 # H 
21 2 1 0.1131 17.64 5.39 35.86 # H 
22 2 1 0.1131 18.66 7.06 30.53 # H 
23 2 1 0.1131 19.72 7.37 31.86 # H 
24 2 1 0.1131 18.8 8.72 31.23 # H 
25 3 3 -0.1327 0.26 8.44 6.38 # C 
26 3 4 -0.3806 0.33 8.08 4.97 # O 
27 3 3 0.9238 0.89 6.92 4.65 # C 
28 3 4 -0.5758 1.04 6.0 5.49 # O 
29 3 4 -0.3806 1.19 6.84 3.36 # O 
30 3 3 -0.1327 1.79 5.61 2.96 # C 
31 3 1 0.1131 -0.3 9.36 6.56 # H 
32 3 1 0.1131 1.29 8.48 6.71 # H 
33 3 1 0.1131 -0.14 7.66 7.03 # H 
34 3 1 0.1131 1.1 5.18 2.23 # H 
35 3 1 0.1131 1.97 4.9 3.75 # H 
36 3 1 0.1131 2.78 5.81 2.56 # H 
37 4 3 -0.1327 25.95 11.29 8.98 # C 
38 4 4 -0.3806 26.36 12.32 8.04 # O 
39 4 3 0.9238 25.72 13.51 7.9 # C 
40 4 4 -0.5758 24.61 13.77 8.38 # O 
41 4 4 -0.3806 26.41 14.39 7.1 # O 
42 4 3 -0.1327 25.98 15.63 6.75 # C 
43 4 1 0.1131 24.91 11.48 9.25 # H 
44 4 1 0.1131 26.6 11.4 9.85 # H 
45 4 1 0.1131 25.96 10.26 8.62 # H 
46 4 1 0.1131 25.6 16.18 7.61 # H 
47 4 1 0.1131 25.19 15.56 5.99 # H 
48 4 1 0.1131 26.75 16.28 6.34 # H 
49 5 3 -0.1327 17.97 12.41 32.69 # C 
50 5 4 -0.3806 18.53 12.96 33.89 # O 
51 5 3 0.9238 19.49 13.83 33.86 # C 
52 5 4 -0.5758 19.87 14.33 32.77 # O 
53 5 4 -0.3806 20.08 14.18 35.06 # O 
54 5 3 -0.1327 20.72 15.49 35.16 # C 
55 5 1 0.1131 18.65 11.77 32.12 # H 
56 5 1 0.1131 17.5 13.16 32.06 # H 
57 5 1 0.1131 17.2 11.67 32.95 # H 
58 5 1 0.1131 20.4 16.15 34.36 # H 
59 5 1 0.1131 21.8 15.47 34.99 # H 
60 5 1 0.1131 20.42 16.06 36.05 # H 
61 6 3 -0.1327 30.13 29.61 14.11 # C 
62 6 4 -0.3806 30.65 28.63 13.21 # O 
63 6 3 0.9238 31.08 27.46 13.69 # C 
64 6 4 -0.5758 31.35 27.33 14.88 # O 
65 6 4 -0.3806 31.1 26.5 12.81 # O 
66 6 3 -0.1327 31.83 25.25 13.0 # C 
67 6 1 0.1131 29.58 30.36 13.54 # H 
68 6 1 0.1131 30.92 30.09 14.69 # H 
69 6 1 0.1131 29.5 29.24 14.91 # H 
70 6 1 0.1131 32.68 25.27 12.32 # H 
71 6 1 0.1131 31.17 24.41 12.79 # H 
72 6 1 0.1131 32.17 25.06 14.01 # H 
73 7 3 -0.1327 7.37 2.32 2.27 # C 
74 7 4 -0.3806 6.98 2.86 3.48 # O 
75 7 3 0.9238 5.77 3.16 3.76 # C 
76 7 4 -0.5758 4.86 3.03 2.96 # O 
77 7 4 -0.3806 5.54 3.72 4.99 # O 
78 7 3 -0.1327 4.24 4.09 5.34 # C 
79 7 1 0.1131 6.6 1.78 1.72 # H 
80 7 1 0.1131 8.21 1.64 2.38 # H 
81 7 1 0.1131 7.7 3.11 1.61 # H 
82 7 1 0.1131 4.13 4.55 6.32 # H 
83 7 1 0.1131 3.57 3.23 5.22 # H 
84 7 1 0.1131 3.9 4.91 4.7 # H 
85 8 3 -0.1327 30.91 17.05 11.8 # C 
86 8 4 -0.3806 31.31 17.94 12.8 # O 
87 8 3 0.9238 32.44 17.7 13.52 # C 
88 8 4 -0.5758 33.26 16.86 13.2 # O 
89 8 4 -0.3806 32.67 18.54 14.49 # O 
90 8 3 -0.1327 33.85 18.41 15.24 # C 
91 8 1 0.1131 31.13 17.65 10.92 # H 
92 8 1 0.1131 29.82 17.03 11.79 # H 
93 8 1 0.1131 31.46 16.11 11.71 # H 
94 8 1 0.1131 34.61 18.28 14.46 # H 
95 8 1 0.1131 33.72 17.56 15.9 # H 
96 8 1 0.1131 34.19 19.3 15.78 # H 
97 9 3 -0.1327 18.74 6.46 23.03 # C 
98 9 4 -0.3806 18.26 6.88 21.75 # O 
99 9 3 0.9238 17.41 7.84 21.63 # C 
100 9 4 -0.5758 16.74 8.18 22.57 # O 
101 9 4 -0.3806 17.24 8.37 20.37 # O 
102 9 3 -0.1327 16.48 9.54 20.15 # C 
103 9 1 0.1131 18.16 5.62 23.41 # H 
104 9 1 0.1131 18.58 7.14 23.87 # H 
105 9 1 0.1131 19.81 6.23 23.04 # H 
106 9 1 0.1131 16.94 10.23 20.85 # H 
107 9 1 0.1131 15.45 9.41 20.51 # H 
108 9 1 0.1131 16.6 10.02 19.18 # H 
109 10 3 -0.1327 15.1 18.58 14.48 # C 
110 10 4 -0.3806 13.8 18.76 13.8 # O 
111 10 3 0.9238 12.67 18.73 14.43 # C 
112 10 4 -0.5758 12.61 18.62 15.65 # O 
113 10 4 -0.3806 11.6 18.94 13.65 # O 
114 10 3 -0.1327 10.3 19.19 14.14 # C 
115 10 1 0.1131 15.91 18.49 13.75 # H 
116 10 1 0.1131 15.0 17.66 15.05 # H 
117 10 1 0.1131 15.43 19.34 15.19 # H 
118 10 1 0.1131 10.49 19.98 14.87 # H 
119 10 1 0.1131 10.01 18.26 14.63 # H 
120 10 1 0.1131 9.52 19.35 13.39 # H 
121 11 3 -0.1327 26.77 0.8 1.63 # C 
122 11 4 -0.3806 27.95 1.55 1.67 # O 
123 11 3 0.9238 28.9 1.35 2.59 # C 
124 11 4 -0.5758 28.64 0.51 3.49 # O 
125 11 4 -0.3806 29.92 2.23 2.53 # O 
126 11 3 -0.1327 30.86 2.32 3.6 # C 
127 11 1 0.1131 26.13 1.06 0.79 # H 
128 11 1 0.1131 26.21 0.97 2.54 # H 
129 11 1 0.1131 26.95 -0.27 1.57 # H 
130 11 1 0.1131 31.06 3.34 3.93 # H 
131 11 1 0.1131 31.79 1.81 3.38 # H 
132 11 1 0.1131 30.39 1.85 4.47 # H 
133 12 3 -0.1327 34.96 20.25 3.74 # C 
134 12 4 -0.3806 34.48 20.18 2.43 # O 
135 12 3 0.9238 35.2 19.82 1.43 # C 
136 12 4 -0.5758 36.37 19.53 1.62 # O 
137 12 4 -0.3806 34.6 19.77 0.28 # O 
138 12 3 -0.1327 35.31 19.34 -0.86 # C 
139 12 1 0.1131 34.21 20.74 4.36 # H 
140 12 1 0.1131 35.95 20.69 3.85 # H 
141 12 1 0.1131 35.22 19.24 4.04 # H 
142 12 1 0.1131 35.75 18.35 -0.75 # H 
143 12 1 0.1131 36.06 20.08 -1.15 # H 
144 12 1 0.1131 34.61 19.12 -1.66 # H 
145 13 3 -0.1327 8.89 34.13 2.68 # C 
146 13 4 -0.3806 9.41 35.2 3.38 # O 
147 13 3 0.9238 8.66 35.76 4.33 # C 
148 13 4 -0.5758 7.54 35.38 4.65 # O 
149 13 4 -0.3806 9.15 36.89 4.77 # O 
150 13 3 -0.1327 8.54 37.57 5.82 # C 
151 13 1 0.1131 9.69 33.62 2.15 # H 
152 13 1 0.1131 8.19 34.48 1.92 # H 
153 13 1 0.1131 8.28 33.42 3.23 # H 
154 13 1 0.1131 7.46 37.65 5.68 # H 
155 13 1 0.1131 9.07 38.53 5.79 # H 
156 13 1 0.1131 8.78 37.01 6.72 # H 
157 14 3 -0.1327 22.54 28.3 7.63 # C 
158 14 4 -0.3806 22.47 27.47 8.78 # O 
159 14 3 0.9238 23.62 26.99 9.25 # C 
160 14 4 -0.5758 24.75 27.3 8.82 # O 
161 14 4 -0.3806 23.44 26.26 10.36 # O 
162 14 3 -0.1327 24.7 25.77 10.99 # C 
163 14 1 0.1131 21.52 28.57 7.36 # H 
164 14 1 0.1131 23.18 27.92 6.83 # H 
165 14 1 0.1131 23.04 29.16 8.07 # H 
166 14 1 0.1131 25.33 25.26 10.25 # H 
167 14 1 0.1131 24.4 25.01 11.71 # H 
168 14 1 0.1131 25.23 26.55 11.54 # H 
169 15 3 -0.1327 12.13 28.96 5.73 # C 
170 15 4 -0.3806 12.76 30.15 5.3 # O 
171 15 3 0.9238 12.09 31.15 4.87 # C 
172 15 4 -0.5758 10.86 31.15 4.86 # O 
173 15 4 -0.3806 12.81 32.28 4.47 # O 
174 15 3 -0.1327 12.21 33.57 4.31 # C 
175 15 1 0.1131 12.43 28.69 6.74 # H 
176 15 1 0.1131 12.37 28.09 5.12 # H 
177 15 1 0.1131 11.04 29.08 5.75 # H 
178 15 1 0.1131 12.93 34.38 4.17 # H 
179 15 1 0.1131 11.67 33.86 5.21 # H 
180 15 1 0.1131 11.49 33.5 3.5 # H 
181 16 3 -0.1327 9.58 33.21 33.82 # C 
182 16 4 -0.3806 10.16 31.94 33.73 # O 
183 16 3 0.9238 10.29 31.39 32.49 # C 
184 16 4 -0.5758 10.16 32.07 31.46 # O 
185 16 4 -0.3806 10.74 30.15 32.37 # O 
186 16 3 -0.1327 10.82 29.39 31.17 # C 
187 16 1 0.1131 8.85 33.13 34.62 # H 
188 16 1 0.1131 9.07 33.52 32.91 # H 
189 16 1 0.1131 10.31 33.97 34.1 # H 
190 16 1 0.1131 10.34 28.42 31.27 # H 
191 16 1 0.1131 11.76 29.13 30.7 # H 
192 16 1 0.1131 10.26 29.93 30.4 # H 
193 17 3 -0.1327 15.71 15.2 25.37 # C 
194 17 4 -0.3806 14.98 14.25 24.64 # O 
195 17 3 0.9238 15.1 12.94 24.89 # C 
196 17 4 -0.5758 15.92 12.44 25.67 # O 
197 17 4 -0.3806 14.21 12.1 24.29 # O 
198 17 3 -0.1327 14.08 10.68 24.65 # C 
199 17 1 0.1131 16.68 15.24 24.88 # H 
200 17 1 0.1131 15.88 15.0 26.43 # H 
201 17 1 0.1131 15.12 16.11 25.26 # H 
202 17 1 0.1131 15.03 10.24 24.34 # H 
203 17 1 0.1131 13.34 10.22 24.0 # H 
204 17 1 0.1131 13.92 10.65 25.73 # H 
205 18 3 -0.1327 0.02 28.3 8.5 # C 
206 18 4 -0.3806 -0.77 29.36 8.05 # O 
207 18 3 0.9238 -0.59 29.85 6.82 # C 
208 18 4 -0.5758 0.46 29.72 6.14 # O 
209 18 4 -0.3806 -1.6 30.59 6.42 # O 
210 18 3 -0.1327 -1.66 31.05 5.11 # C 
211 18 1 0.1131 -0.41 27.4 8.05 # H 
212 18 1 0.1131 -0.05 28.2 9.58 # H 
213 18 1 0.1131 1.09 28.35 8.28 # H 
214 18 1 0.1131 -2.56 31.64 4.97 # H 
215 18 1 0.1131 -1.71 30.21 4.42 # H 
216 18 1 0.1131 -0.82 31.63 4.72 # H 
217 19 3 -0.1327 30.32 30.74 7.85 # C 
218 19 4 -0.3806 31.2 31.52 7.13 # O 
219 19 3 0.9238 31.89 32.49 7.69 # C 
220 19 4 -0.5758 31.78 32.78 8.92 # O 
221 19 4 -0.3806 32.61 33.17 6.8 # O 
222 19 3 -0.1327 33.44 34.17 7.34 # C 
223 19 1 0.1131 30.77 29.92 8.4 # H 
224 19 1 0.1131 29.66 30.32 7.09 # H 
225 19 1 0.1131 29.65 31.29 8.51 # H 
226 19 1 0.1131 33.0 34.78 8.13 # H 
227 19 1 0.1131 33.63 35.0 6.66 # H 
228 19 1 0.1131 34.37 33.8 7.77 # H 
229 20 3 -0.1327 28.02 13.07 21.09 # C 
230 20 4 -0.3806 28.81 13.38 19.93 # O 
231 20 3 0.9238 29.54 14.53 19.9 # C 
232 20 4 -0.5758 29.7 15.22 20.88 # O 
233 20 4 -0.3806 29.97 14.84 18.71 # O 
234 20 3 -0.1327 30.85 15.95 18.44 # C 
235 20 1 0.1131 27.11 12.61 20.7 # H 
236 20 1 0.1131 27.77 14.01 21.57 # H 
237 20 1 0.1131 28.54 12.38 21.76 # H 
238 20 1 0.1131 31.36 16.0 17.48 # H 
239 20 1 0.1131 31.71 15.9 19.11 # H 
240 20 1 0.1131 30.31 16.89 18.55 # H 
241 21 3 -0.1327 23.85 21.12 12.78 # C 
242 21 4 -0.3806 25.14 21.69 12.91 # O 
243 21 3 0.9238 26.3 20.96 12.8 # C 
244 21 4 -0.5758 26.29 19.71 12.98 # O 
245 21 4 -0.3806 27.39 21.66 12.6 # O 
246 21 3 -0.1327 28.63 21.04 12.87 # C 
247 21 1 0.1131 23.56 20.56 11.89 # H 
248 21 1 0.1131 23.04 21.83 12.89 # H 
249 21 1 0.1131 23.78 20.38 13.58 # H 
250 21 1 0.1131 28.71 20.01 12.51 # H 
251 21 1 0.1131 28.59 20.91 13.95 # H 
252 21 1 0.1131 29.45 21.7 12.6 # H 
253 22 3 -0.1327 13.67 3.26 26.81 # C 
254 22 4 -0.3806 14.05 2.76 25.53 # O 
255 22 3 0.9238 15.18 3.07 24.95 # C 
256 22 4 -0.5758 15.97 3.88 25.34 # O 
257 22 4 -0.3806 15.26 2.55 23.71 # O 
258 22 3 -0.1327 16.37 2.81 22.9 # C 
259 22 1 0.1131 13.84 4.32 26.99 # H 
260 22 1 0.1131 14.22 2.64 27.51 # H 
261 22 1 0.1131 12.64 2.93 26.97 # H 
262 22 1 0.1131 17.21 2.28 23.35 # H 
263 22 1 0.1131 16.56 3.88 22.76 # H 
264 22 1 0.1131 16.27 2.54 21.85 # H 
265 23 3 -0.1327 21.06 20.36 19.33 # C 
266 23 4 -0.3806 20.7 20.48 20.73 # O 
267 23 3 0.9238 21.15 21.55 21.37 # C 
268 23 4 -0.5758 21.37 22.58 20.82 # O 
269 23 4 -0.3806 21.09 21.35 22.72 # O 
270 23 3 -0.1327 21.56 22.39 23.66 # C 
271 23 1 0.1131 20.44 19.63 18.83 # H 
272 23 1 0.1131 22.04 19.9 19.2 # H 
273 23 1 0.1131 21.25 21.29 18.79 # H 
274 23 1 0.1131 21.02 22.3 24.6 # H 
275 23 1 0.1131 21.41 23.39 23.26 # H 
276 23 1 0.1131 22.63 22.28 23.84 # H 
277 24 3 -0.1327 30.03 29.73 17.99 # C 
278 24 4 -0.3806 29.4 30.8 18.68 # O 
279 24 3 0.9238 28.61 31.59 17.98 # C 
280 24 4 -0.5758 28.47 31.48 16.76 # O 
281 24 4 -0.3806 27.93 32.51 18.74 # O 
282 24 3 -0.1327 26.86 33.22 18.12 # C 
283 24 1 0.1131 29.38 29.26 17.26 # H 
284 24 1 0.1131 30.31 28.99 18.74 # H 
285 24 1 0.1131 30.81 30.15 17.35 # H 
286 24 1 0.1131 25.98 32.59 18.06 # H 
287 24 1 0.1131 27.08 33.59 17.12 # H 
288 24 1 0.1131 26.5 34.07 18.7 # H 
289 25 3 -0.1327 13.25 2.93 34.34 # C 
290 25 4 -0.3806 14.47 2.65 34.94 # O 
291 25 3 0.9238 15.2 1.52 34.73 # C 
292 25 4 -0.5758 14.98 0.78 33.72 # O 
293 25 4 -0.3806 16.21 1.47 35.55 # O 
294 25 3 -0.1327 17.1 0.4 35.46 # C 
295 25 1 0.1131 12.75 3.72 34.9 # H 
296 25 1 0.1131 12.6 2.06 34.37 # H 
297 25 1 0.1131 13.43 3.28 33.32 # H 
298 25 1 0.1131 17.93 0.59 34.79 # H 
299 25 1 0.1131 16.53 -0.4 34.99 # H 
300 25 1 0.1131 17.5 0.06 36.42 # H 
301 26 3 -0.1327 23.81 29.69 19.76 # C 
302 26 4 -0.3806 23.07 30.77 20.34 # O 
303 26 3 0.9238 22.27 30.55 21.42 # C 
304 26 4 -0.5758 22.29 29.43 22.0 # O 
305 26 4 -0.3806 21.5 31.55 21.74 # O 
306 26 3 -0.1327 20.59 31.38 22.81 # C 
307 26 1 0.1131 23.03 29.05 19.36 # H 
308 26 1 0.1131 24.43 29.11 20.44 # H 
309 26 1 0.1131 24.36 30.04 18.88 # H 
310 26 1 0.1131 19.88 32.21 22.82 # H 
311 26 1 0.1131 21.09 31.4 23.77 # H 
312 26 1 0.1131 20.04 30.44 22.72 # H 
313 27 3 -0.1327 5.46 12.61 3.37 # C 
314 27 4 -0.3806 5.44 12.02 2.06 # O 
315 27 3 0.9238 6.43 11.29 1.55 # C 
316 27 4 -0.5758 7.55 11.37 2.07 # O 
317 27 4 -0.3806 6.11 10.54 0.48 # O 
318 27 3 -0.1327 6.98 9.44 0.01 # C 
319 27 1 0.1131 5.95 11.96 4.1 # H 
320 27 1 0.1131 4.53 13.06 3.74 # H 
321 27 1 0.1131 6.18 13.39 3.15 # H 
322 27 1 0.1131 6.47 8.7 -0.6 # H 
323 27 1 0.1131 7.45 8.95 0.86 # H 
324 27 1 0.1131 7.7 9.85 -0.7 # H 
325 28 3 -0.1327 8.88 19.24 28.1 # C 
326 28 4 -0.3806 10.24 19.26 28.37 # O 
327 28 3 0.9238 10.73 19.93 29.42 # C 
328 28 4 -0.5758 10.04 20.7 30.12 # O 
329 28 4 -0.3806 12.06 19.7 29.61 # O 
330 28 3 -0.1327 12.63 20.31 30.79 # C 
331 28 1 0.1131 8.29 18.8 28.9 # H 
332 28 1 0.1131 8.74 18.67 27.18 # H 
333 28 1 0.1131 8.54 20.27 28.0 # H 
334 28 1 0.1131 12.1 21.17 31.18 # H 
335 28 1 0.1131 13.65 20.59 30.51 # H 
336 28 1 0.1131 12.61 19.59 31.61 # H 
337 29 3 -0.1327 35.33 26.41 19.08 # C 
338 29 4 -0.3806 34.63 25.2 18.98 # O 
339 29 3 0.9238 35.31 24.06 19.51 # C 
340 29 4 -0.5758 36.27 24.18 20.3 # O 
341 29 4 -0.3806 34.8 22.92 19.12 # O 
342 29 3 -0.1327 35.52 21.73 19.37 # C 
343 29 1 0.1131 35.73 26.69 20.05 # H 
344 29 1 0.1131 34.84 27.34 18.82 # H 
345 29 1 0.1131 36.1 26.35 18.31 # H 
346 29 1 0.1131 35.26 21.32 20.34 # H 
347 29 1 0.1131 36.58 21.97 19.36 # H 
348 29 1 0.1131 35.21 20.98 18.64 # H 
349 30 3 -0.1327 29.95 2.47 11.71 # C 
350 30 4 -0.3806 29.2 1.29 12.01 # O 
351 30 3 0.9238 29.31 0.65 13.21 # C 
352 30 4 -0.5758 30.35 0.84 13.92 # O 
353 30 4 -0.3806 28.33 -0.15 13.58 # O 
354 30 3 -0.1327 28.48 -1.09 14.65 # C 
355 30 1 0.1131 29.38 3.08 11.01 # H 
356 30 1 0.1131 30.88 2.18 11.21 # H 
357 30 1 0.1131 30.12 3.08 12.6 # H 
358 30 1 0.1131 28.93 -0.65 15.54 # H 
359 30 1 0.1131 29.22 -1.8 14.29 # H 
360 30 1 0.1131 27.58 -1.7 14.79 # H 
361 31 3 -0.1327 14.72 19.29 9.69 # C 
362 31 4 -0.3806 15.39 18.72 8.6 # O 
363 31 3 0.9238 16.67 18.77 8.54 # C 
364 31 4 -0.5758 17.37 19.39 9.36 # O 
365 31 4 -0.3806 17.17 18.26 7.41 # O 
366 31 3 -0.1327 18.6 18.28 7.16 # C 
367 31 1 0.1131 14.89 20.36 9.57 # H 
368 31 1 0.1131 15.06 18.97 10.68 # H 
369 31 1 0.1131 13.65 19.11 9.61 # H 
370 31 1 0.1131 19.13 17.62 7.84 # H 
371 31 1 0.1131 19.11 19.24 7.3 # H 
372 31 1 0.1131 18.71 17.92 6.13 # H 
373 32 3 -0.1327 7.16 23.45 5.46 # C 
374 32 4 -0.3806 6.63 22.95 4.25 # O 
375 32 3 0.9238 6.55 23.68 3.17 # C 
376 32 4 -0.5758 6.95 24.86 3.08 # O 
377 32 4 -0.3806 6.18 22.97 2.08 # O 
378 32 3 -0.1327 6.17 23.69 0.86 # C 
379 32 1 0.1131 6.52 24.28 5.76 # H 
380 32 1 0.1131 8.1 24.0 5.41 # H 
381 32 1 0.1131 7.11 22.75 6.3 # H 
382 32 1 0.1131 5.68 24.65 1.01 # H 
383 32 1 0.1131 5.68 23.11 0.08 # H 
384 32 1 0.1131 7.2 23.9 0.55 # H 
385 33 3 -0.1327 2.34 28.71 3.55 # C 
386 33 4 -0.3806 3.38 28.93 2.63 # O 
387 33 3 0.9238 4.63 28.58 2.98 # C 
388 33 4 -0.5758 4.99 27.99 4.0 # O 
389 33 4 -0.3806 5.43 28.9 1.97 # O 
390 33 3 -0.1327 6.79 28.43 1.98 # C 
391 33 1 0.1131 2.51 29.43 4.34 # H 
392 33 1 0.1131 2.26 27.67 3.86 # H 
393 33 1 0.1131 1.37 28.98 3.14 # H 
394 33 1 0.1131 7.36 28.87 1.17 # H 
395 33 1 0.1131 6.62 27.39 1.71 # H 
396 33 1 0.1131 7.3 28.55 2.94 # H 
397 34 3 -0.1327 34.11 29.11 16.44 # C 
398 34 4 -0.3806 35.36 28.56 16.73 # O 
399 34 3 0.9238 36.29 29.23 17.4 # C 
400 34 4 -0.5758 36.19 30.31 17.93 # O 
401 34 4 -0.3806 37.41 28.47 17.43 # O 
402 34 3 -0.1327 38.62 29.01 17.98 # C 
403 34 1 0.1131 33.77 29.59 17.35 # H 
404 34 1 0.1131 33.4 28.44 15.97 # H 
405 34 1 0.1131 34.15 29.93 15.72 # H 
406 34 1 0.1131 38.37 29.79 18.71 # H 
407 34 1 0.1131 39.3 29.46 17.25 # H 
408 34 1 0.1131 39.03 28.15 18.51 # H 
409 35 3 -0.1327 9.57 13.89 13.2 # C 
410 35 4 -0.3806 9.27 14.03 11.81 # O 
411 35 3 0.9238 9.53 15.2 11.02 # C 
412 35 4 -0.5758 10.16 16.14 11.43 # O 
413 35 4 -0.3806 9.1 15.02 9.71 # O 
414 35 3 -0.1327 9.13 16.09 8.81 # C 
415 35 1 0.1131 9.44 14.81 13.78 # H 
416 35 1 0.1131 10.62 13.62 13.33 # H 
417 35 1 0.1131 8.92 13.14 13.65 # H 
418 35 1 0.1131 9.17 15.62 7.82 # H 
419 35 1 0.1131 9.97 16.78 8.92 # H 
420 35 1 0.1131 8.21 16.68 8.84 # H 
421 36 3 -0.1327 9.36 23.33 25.27 # C 
422 36 4 -0.3806 8.69 23.96 26.37 # O 
423 36 3 0.9238 8.79 23.46 27.6 # C 
424 36 4 -0.5758 9.66 22.55 27.83 # O 
425 36 4 -0.3806 8.02 23.97 28.61 # O 
426 36 3 -0.1327 7.83 23.17 29.79 # C 
427 36 1 0.1131 10.42 23.59 25.25 # H 
428 36 1 0.1131 8.84 23.61 24.35 # H 
429 36 1 0.1131 9.36 22.26 25.49 # H 
430 36 1 0.1131 7.09 23.64 30.44 # H 
431 36 1 0.1131 8.68 22.86 30.4 # H 
432 36 1 0.1131 7.34 22.25 29.47 # H 
433 37 3 -0.1327 30.25 25.36 0.22 # C 
434 37 4 -0.3806 30.5 26.8 0.29 # O 
435 37 3 0.9238 31.41 27.31 -0.51 # C 
436 37 4 -0.5758 32.09 26.62 -1.25 # O 
437 37 4 -0.3806 31.52 28.67 -0.33 # O 
438 37 3 -0.1327 32.51 29.48 -0.86 # C 
439 37 1 0.1131 29.5 25.14 -0.54 # H 
440 37 1 0.1131 29.8 24.9 1.1 # H 
441 37 1 0.1131 31.14 24.82 -0.11 # H 
442 37 1 0.1131 33.19 29.9 -0.12 # H 
443 37 1 0.1131 32.02 30.31 -1.37 # H 
444 37 1 0.1131 32.97 28.85 -1.62 # H 
445 38 3 -0.1327 16.42 19.22 4.05 # C 
446 38 4 -0.3806 16.74 20.61 4.18 # O 
447 38 3 0.9238 17.96 20.95 4.16 # C 
448 38 4 -0.5758 18.94 20.28 4.38 # O 
449 38 4 -0.3806 18.09 22.22 3.87 # O 
450 38 3 -0.1327 19.44 22.78 3.77 # C 
451 38 1 0.1131 16.94 18.63 3.29 # H 
452 38 1 0.1131 15.37 19.08 3.83 # H 
453 38 1 0.1131 16.55 18.65 4.97 # H 
454 38 1 0.1131 19.38 23.87 3.82 # H 
455 38 1 0.1131 19.86 22.62 2.78 # H 
456 38 1 0.1131 20.12 22.39 4.52 # H 
457 39 3 -0.1327 7.07 19.0 10.29 # C 
458 39 4 -0.3806 6.82 18.59 8.96 # O 
459 39 3 0.9238 6.8 19.51 8.0 # C 
460 39 4 -0.5758 6.47 20.64 8.24 # O 
461 39 4 -0.3806 7.0 19.04 6.75 # O 
462 39 3 -0.1327 7.09 19.92 5.63 # C 
463 39 1 0.1131 7.96 19.59 10.52 # H 
464 39 1 0.1131 7.39 18.13 10.88 # H 
465 39 1 0.1131 6.32 19.68 10.69 # H 
466 39 1 0.1131 7.21 19.23 4.8 # H 
467 39 1 0.1131 7.94 20.59 5.74 # H 
468 39 1 0.1131 6.15 20.47 5.5 # H 
469 40 3 -0.1327 0.57 9.27 10.08 # C 
470 40 4 -0.3806 0.89 7.99 10.7 # O 
471 40 3 0.9238 1.89 7.26 10.19 # C 
472 40 4 -0.5758 2.6 7.58 9.22 # O 
473 40 4 -0.3806 2.13 6.06 10.86 # O 
474 40 3 -0.1327 3.01 5.15 10.16 # C 
475 40 1 0.1131 1.31 9.53 9.32 # H 
476 40 1 0.1131 0.38 10.01 10.86 # H 
477 40 1 0.1131 -0.39 9.13 9.58 # H 
478 40 1 0.1131 4.03 5.49 10.03 # H 
479 40 1 0.1131 2.52 4.98 9.2 # H 
480 40 1 0.1131 3.15 4.22 10.72 # H 
481 41 3 -0.1327 23.2 26.23 23.34 # C 
482 41 4 -0.3806 22.71 25.39 24.39 # O 
483 41 3 0.9238 21.92 25.83 25.3 # C 
484 41 4 -0.5758 21.59 27.04 25.33 # O 
485 41 4 -0.3806 21.61 24.9 26.14 # O 
486 41 3 -0.1327 20.4 25.02 26.88 # C 
487 41 1 0.1131 22.49 27.01 23.08 # H 
488 41 1 0.1131 23.49 25.72 22.42 # H 
489 41 1 0.1131 24.06 26.79 23.7 # H 
490 41 1 0.1131 19.5 25.14 26.27 # H 
491 41 1 0.1131 20.53 25.88 27.54 # H 
492 41 1 0.1131 20.15 24.19 27.55 # H 
493 42 3 -0.1327 10.28 22.13 7.09 # C 
494 42 4 -0.3806 11.24 21.74 8.11 # O 
495 42 3 0.9238 10.99 20.59 8.78 # C 
496 42 4 -0.5758 10.16 19.79 8.37 # O 
497 42 4 -0.3806 11.77 20.27 9.81 # O 
498 42 3 -0.1327 11.51 19.08 10.55 # C 
499 42 1 0.1131 10.45 23.11 6.66 # H 
500 42 1 0.1131 9.33 22.32 7.58 # H 
501 42 1 0.1131 10.06 21.37 6.34 # H 
502 42 1 0.1131 11.42 18.17 9.96 # H 
503 42 1 0.1131 10.52 19.11 11.01 # H 
504 42 1 0.1131 12.24 18.88 11.34 # H 
505 43 3 -0.1327 22.72 9.63 2.27 # C 
506 43 4 -0.3806 21.71 9.64 1.3 # O 
507 43 3 0.9238 21.94 9.46 0.05 # C 
508 43 4 -0.5758 23.03 8.92 -0.39 # O 
509 43 4 -0.3806 20.91 9.9 -0.71 # O 
510 43 3 -0.1327 20.93 9.71 -2.15 # C 
511 43 1 0.1131 23.2 8.65 2.35 # H 
512 43 1 0.1131 22.37 9.89 3.27 # H 
513 43 1 0.1131 23.56 10.24 1.93 # H 
514 43 1 0.1131 20.02 10.09 -2.6 # H 
515 43 1 0.1131 20.98 8.66 -2.42 # H 
516 43 1 0.1131 21.8 10.14 -2.65 # H 
517 44 3 -0.1327 10.33 8.2 1.4 # C 
518 44 4 -0.3806 9.89 9.44 0.82 # O 
519 44 3 0.9238 10.76 10.3 0.34 # C 
520 44 4 -0.5758 11.92 10.28 0.66 # O 
521 44 4 -0.3806 10.29 11.21 -0.43 # O 
522 44 3 -0.1327 11.08 12.12 -1.03 # C 
523 44 1 0.1131 9.51 7.5 1.56 # H 
524 44 1 0.1131 11.01 8.29 2.25 # H 
525 44 1 0.1131 10.86 7.69 0.59 # H 
526 44 1 0.1131 11.73 11.54 -1.68 # H 
527 44 1 0.1131 11.58 12.71 -0.26 # H 
528 44 1 0.1131 10.49 12.79 -1.66 # H 
529 45 3 -0.1327 8.18 14.56 28.84 # C 
530 45 4 -0.3806 7.34 15.46 27.97 # O 
531 45 3 0.9238 7.85 15.76 26.74 # C 
532 45 4 -0.5758 8.91 15.35 26.34 # O 
533 45 4 -0.3806 7.09 16.59 25.95 # O 
534 45 3 -0.1327 7.51 17.13 24.79 # C 
535 45 1 0.1131 7.74 14.64 29.83 # H 
536 45 1 0.1131 9.22 14.9 28.78 # H 
537 45 1 0.1131 8.15 13.5 28.56 # H 
538 45 1 0.1131 6.69 17.73 24.39 # H 
539 45 1 0.1131 7.8 16.36 24.06 # H 
540 45 1 0.1131 8.26 17.91 24.91 # H 
541 46 3 -0.1327 10.66 8.07 25.52 # C 
542 46 4 -0.3806 10.4 7.06 24.57 # O 
543 46 3 0.9238 10.7 5.75 24.95 # C 
544 46 4 -0.5758 11.18 5.42 26.0 # O 
545 46 4 -0.3806 10.53 4.81 23.97 # O 
546 46 3 -0.1327 11.09 3.49 24.19 # C 
547 46 1 0.1131 10.6 7.75 26.56 # H 
548 46 1 0.1131 10.07 8.95 25.26 # H 
549 46 1 0.1131 11.72 8.32 25.48 # H 
550 46 1 0.1131 10.76 2.81 23.41 # H 
551 46 1 0.1131 10.72 3.05 25.12 # H 
552 46 1 0.1131 12.18 3.51 24.1 # H 
553 47 3 -0.1327 15.32 10.48 29.69 # C 
554 47 4 -0.3806 15.35 11.83 29.96 # O 
555 47 3 0.9238 16.19 12.61 29.27 # C 
556 47 4 -0.5758 16.58 12.21 28.19 # O 
557 47 4 -0.3806 16.43 13.85 29.76 # O 
558 47 3 -0.1327 17.43 14.7 29.19 # C 
559 47 1 0.1131 14.66 10.23 28.86 # H 
560 47 1 0.1131 14.89 9.94 30.53 # H 
561 47 1 0.1131 16.25 9.92 29.56 # H 
562 47 1 0.1131 17.29 14.68 28.11 # H 
563 47 1 0.1131 18.36 14.17 29.38 # H 
564 47 1 0.1131 17.49 15.71 29.6 # H 
565 48 3 -0.1327 14.45 0.2 5.49 # C 
566 48 4 -0.3806 15.12 -1.05 5.59 # O 
567 48 3 0.9238 15.85 -1.6 4.65 # C 
568 48 4 -0.5758 15.94 -1.16 3.48 # O 
569 48 4 -0.3806 16.34 -2.75 4.99 # O 
570 48 3 -0.1327 17.22 -3.52 4.17 # C 
571 48 1 0.1131 15.27 0.92 5.44 # H 
572 48 1 0.1131 13.87 0.31 6.41 # H 
573 48 1 0.1131 13.82 0.23 4.6 # H 
574 48 1 0.1131 16.62 -3.72 3.28 # H 
575 48 1 0.1131 17.42 -4.41 4.76 # H 
576 48 1 0.1131 18.16 -3.12 3.82 # H 
577 49 3 -0.1327 26.25 13.81 17.59 # C 
578 49 4 -0.3806 26.94 14.97 17.84 # O 
579 49 3 0.9238 27.53 15.74 16.86 # C 
580 49 4 -0.5758 27.53 15.41 15.7 # O 
581 49 4 -0.3806 28.01 16.91 17.24 # O 
582 49 3 -0.1327 28.55 17.72 16.24 # C 
583 49 1 0.1131 27.0 13.05 17.78 # H 
584 49 1 0.1131 26.08 13.66 16.53 # H 
585 49 1 0.1131 25.34 13.6 18.15 # H 
586 49 1 0.1131 29.54 17.3 16.04 # H 
587 49 1 0.1131 28.73 18.77 16.48 # H 
588 49 1 0.1131 28.02 17.61 15.3 # H 
589 50 3 -0.1327 23.47 30.43 0.17 # C 
590 50 4 -0.3806 24.52 30.13 -0.75 # O 
591 50 3 0.9238 24.72 28.94 -1.21 # C 
592 50 4 -0.5758 24.25 27.93 -0.65 # O 
593 50 4 -0.3806 25.53 28.84 -2.33 # O 
594 50 3 -0.1327 25.89 27.55 -2.85 # C 
595 50 1 0.1131 23.02 31.42 0.23 # H 
596 50 1 0.1131 23.83 30.06 1.13 # H 
597 50 1 0.1131 22.56 29.87 -0.0 # H 
598 50 1 0.1131 26.02 26.8 -2.07 # H 
599 50 1 0.1131 26.79 27.7 -3.44 # H 
600 50 1 0.1131 25.05 27.16 -3.42 # H 
601 51 3 -0.1327 30.95 0.22 0.02 # C 
602 51 4 -0.3806 30.47 -0.76 0.92 # O 
603 51 3 0.9238 30.97 -1.99 0.88 # C 
604 51 4 -0.5758 31.75 -2.37 0.07 # O 
605 51 4 -0.3806 30.52 -2.78 1.93 # O 
606 51 3 -0.1327 31.16 -4.0 2.13 # C 
607 51 1 0.1131 31.95 0.57 0.27 # H 
608 51 1 0.1131 30.4 1.14 0.18 # H 
609 51 1 0.1131 30.9 0.01 -1.05 # H 
610 51 1 0.1131 30.59 -4.82 1.68 # H 
611 51 1 0.1131 31.01 -4.26 3.18 # H 
612 51 1 0.1131 32.21 -4.15 1.87 # H 
613 52 3 -0.1327 25.83 5.27 31.21 # C 
614 52 4 -0.3806 26.44 4.1 30.76 # O 
615 52 3 0.9238 25.84 2.96 30.68 # C 
616 52 4 -0.5758 24.58 2.83 30.63 # O 
617 52 4 -0.3806 26.73 1.94 30.49 # O 
618 52 3 -0.1327 26.27 0.6 30.1 # C 
619 52 1 0.1131 25.02 5.05 31.9 # H 
620 52 1 0.1131 25.32 5.69 30.35 # H 
621 52 1 0.1131 26.56 6.0 31.57 # H 
622 52 1 0.1131 27.04 -0.17 30.05 # H 
623 52 1 0.1131 25.86 0.82 29.12 # H 
624 52 1 0.1131 25.47 0.24 30.74 # H 
625 53 3 -0.1327 21.95 25.18 19.01 # C 
626 53 4 -0.3806 23.05 24.99 18.09 # O 
627 53 3 0.9238 22.73 24.86 16.77 # C 
628 53 4 -0.5758 21.59 24.97 16.3 # O 
629 53 4 -0.3806 23.84 24.91 15.97 # O 
630 53 3 -0.1327 23.61 24.71 14.54 # C 
631 53 1 0.1131 22.28 25.24 20.05 # H 
632 53 1 0.1131 21.23 24.36 18.97 # H 
633 53 1 0.1131 21.48 26.09 18.64 # H 
634 53 1 0.1131 24.51 24.8 13.94 # H 
635 53 1 0.1131 22.87 25.38 14.1 # H 
636 53 1 0.1131 23.36 23.67 14.32 # H 
637 54 3 -0.1327 6.93 1.05 13.18 # C 
638 54 4 -0.3806 7.46 1.21 11.82 # O 
639 54 3 0.9238 6.64 1.59 10.84 # C 
640 54 4 -0.5758 5.45 1.79 11.07 # O 
641 54 4 -0.3806 7.22 1.85 9.72 # O 
642 54 3 -0.1327 6.51 1.92 8.54 # C 
643 54 1 0.1131 6.28 0.18 13.13 # H 
644 54 1 0.1131 6.35 1.91 13.51 # H 
645 54 1 0.1131 7.77 0.93 13.86 # H 
646 54 1 0.1131 7.13 2.61 7.96 # H 
647 54 1 0.1131 5.57 2.46 8.66 # H 
648 54 1 0.1131 6.38 0.9 8.17 # H 
649 55 3 -0.1327 27.89 28.99 29.21 # C 
650 55 4 -0.3806 28.33 27.83 29.85 # O 
651 55 3 0.9238 29.69 27.65 30.07 # C 
652 55 4 -0.5758 30.49 28.38 29.45 # O 
653 55 4 -0.3806 29.96 26.81 31.09 # O 
654 55 3 -0.1327 31.26 26.5 31.35 # C 
655 55 1 0.1131 27.95 29.76 29.98 # H 
656 55 1 0.1131 26.85 28.72 28.99 # H 
657 55 1 0.1131 28.31 29.27 28.25 # H 
658 55 1 0.1131 31.8 25.96 30.57 # H 
659 55 1 0.1131 31.33 25.82 32.19 # H 
660 55 1 0.1131 31.87 27.35 31.64 # H 
661 56 3 -0.1327 7.2 4.9 10.99 # C 
662 56 4 -0.3806 7.72 4.18 12.09 # O 
663 56 3 0.9238 7.94 4.8 13.21 # C 
664 56 4 -0.5758 7.63 5.98 13.4 # O 
665 56 4 -0.3806 8.38 3.99 14.14 # O 
666 56 3 -0.1327 9.16 4.51 15.24 # C 
667 56 1 0.1131 7.33 4.22 10.14 # H 
668 56 1 0.1131 7.61 5.89 10.8 # H 
669 56 1 0.1131 6.12 5.02 11.08 # H 
670 56 1 0.1131 8.61 4.79 16.14 # H 
671 56 1 0.1131 9.74 5.4 14.99 # H 
672 56 1 0.1131 9.82 3.74 15.64 # H 
673 57 3 -0.1327 18.66 16.9 19.85 # C 
674 57 4 -0.3806 17.5 16.92 19.0 # O 
675 57 3 0.9238 16.42 17.78 19.42 # C 
676 57 4 -0.5758 16.43 18.19 20.63 # O 
677 57 4 -0.3806 15.46 18.03 18.54 # O 
678 57 3 -0.1327 14.55 19.09 18.76 # C 
679 57 1 0.1131 18.36 16.61 20.85 # H 
680 57 1 0.1131 19.17 17.87 19.8 # H 
681 57 1 0.1131 19.34 16.17 19.41 # H 
682 57 1 0.1131 13.52 18.75 18.67 # H 
683 57 1 0.1131 14.78 19.91 18.08 # H 
684 57 1 0.1131 14.73 19.54 19.74 # H 
685 58 3 -0.1327 26.41 11.19 13.23 # C 
686 58 4 -0.3806 24.97 11.18 13.01 # O 
687 58 3 0.9238 24.15 11.91 13.85 # C 
688 58 4 -0.5758 24.6 12.69 14.7 # O 
689 58 4 -0.3806 22.83 11.49 13.82 # O 
690 58 3 -0.1327 21.9 12.24 14.61 # C 
691 58 1 0.1131 26.64 10.42 13.97 # H 
692 58 1 0.1131 26.73 12.16 13.62 # H 
693 58 1 0.1131 26.95 10.97 12.31 # H 
694 58 1 0.1131 22.26 13.17 15.04 # H 
695 58 1 0.1131 21.65 11.56 15.42 # H 
696 58 1 0.1131 21.05 12.48 13.98 # H 
697 59 3 -0.1327 31.4 21.26 34.62 # C 
698 59 4 -0.3806 30.73 22.44 34.41 # O 
699 59 3 0.9238 29.88 22.61 33.5 # C 
700 59 4 -0.5758 29.59 21.7 32.74 # O 
701 59 4 -0.3806 29.36 23.79 33.43 # O 
702 59 3 -0.1327 28.32 24.25 32.51 # C 
703 59 1 0.1131 32.01 21.1 33.74 # H 
704 59 1 0.1131 30.69 20.43 34.71 # H 
705 59 1 0.1131 32.05 21.31 35.5 # H 
706 59 1 0.1131 28.71 23.88 31.56 # H 
707 59 1 0.1131 28.19 25.33 32.43 # H 
708 59 1 0.1131 27.34 23.86 32.78 # H 
709 60 3 -0.1327 17.5 30.56 13.72 # C 
710 60 4 -0.3806 18.23 30.66 15.0 # O 
711 60 3 0.9238 17.88 31.68 15.91 # C 
712 60 4 -0.5758 16.97 32.51 15.68 # O 
713 60 4 -0.3806 18.43 31.62 17.16 # O 
714 60 3 -0.1327 18.15 32.56 18.17 # C 
715 60 1 0.1131 16.44 30.78 13.79 # H 
716 60 1 0.1131 17.61 29.53 13.39 # H 
717 60 1 0.1131 17.97 31.26 13.02 # H 
718 60 1 0.1131 17.22 32.3 18.68 # H 
719 60 1 0.1131 18.01 33.57 17.78 # H 
720 60 1 0.1131 19.02 32.65 18.82 # H 
721 61 3 -0.1327 34.14 0.53 15.36 # C 
722 61 4 -0.3806 34.3 1.83 14.71 # O 
723 61 3 0.9238 35.01 2.76 15.35 # C 
724 61 4 -0.5758 35.46 2.68 16.46 # O 
725 61 4 -0.3806 35.1 3.85 14.64 # O 
726 61 3 -0.1327 35.89 4.93 14.97 # C 
727 61 1 0.1131 33.32 -0.03 14.91 # H 
728 61 1 0.1131 34.04 0.55 16.45 # H 
729 61 1 0.1131 35.03 -0.09 15.26 # H 
730 61 1 0.1131 36.87 4.64 15.36 # H 
731 61 1 0.1131 35.36 5.46 15.76 # H 
732 61 1 0.1131 35.98 5.63 14.14 # H 
733 62 3 -0.1327 21.13 6.19 10.24 # C 
734 62 4 -0.3806 19.8 5.91 9.79 # O 
735 62 3 0.9238 19.47 5.97 8.5 # C 
736 62 4 -0.5758 20.13 6.68 7.75 # O 
737 62 4 -0.3806 18.37 5.38 8.16 # O 
738 62 3 -0.1327 17.8 5.55 6.87 # C 
739 62 1 0.1131 20.97 5.91 11.28 # H 
740 62 1 0.1131 21.39 7.25 10.15 # H 
741 62 1 0.1131 21.88 5.55 9.77 # H 
742 62 1 0.1131 18.44 5.02 6.16 # H 
743 62 1 0.1131 17.71 6.59 6.57 # H 
744 62 1 0.1131 16.9 4.95 6.73 # H 
745 63 3 -0.1327 14.98 30.07 16.83 # C 
746 63 4 -0.3806 13.94 31.01 16.41 # O 
747 63 3 0.9238 13.64 31.04 15.08 # C 
748 63 4 -0.5758 14.14 30.28 14.21 # O 
749 63 4 -0.3806 12.73 32.0 14.88 # O 
750 63 3 -0.1327 12.05 32.12 13.65 # C 
751 63 1 0.1131 14.68 29.03 16.66 # H 
752 63 1 0.1131 15.17 30.16 17.89 # H 
753 63 1 0.1131 15.8 30.24 16.13 # H 
754 63 1 0.1131 11.11 32.67 13.76 # H 
755 63 1 0.1131 11.51 31.24 13.31 # H 
756 63 1 0.1131 12.59 32.75 12.94 # H 
757 64 3 -0.1327 34.27 19.3 10.84 # C 
758 64 4 -0.3806 33.04 20.06 10.67 # O 
759 64 3 0.9238 33.19 21.38 10.35 # C 
760 64 4 -0.5758 34.27 21.9 10.06 # O 
761 64 4 -0.3806 32.04 22.05 10.25 # O 
762 64 3 -0.1327 32.05 23.45 10.01 # C 
763 64 1 0.1131 34.58 19.5 11.86 # H 
764 64 1 0.1131 35.07 19.56 10.15 # H 
765 64 1 0.1131 34.1 18.22 10.78 # H 
766 64 1 0.1131 31.06 23.75 10.34 # H 
767 64 1 0.1131 31.99 23.71 8.96 # H 
768 64 1 0.1131 32.73 24.04 10.63 # H 
769 65 3 -0.1327 7.73 31.14 5.47 # C 
770 65 4 -0.3806 6.46 30.88 4.8 # O 
771 65 3 0.9238 5.55 31.79 4.68 # C 
772 65 4 -0.5758 5.75 32.97 4.98 # O 
773 65 4 -0.3806 4.3 31.36 4.34 # O 
774 65 3 -0.1327 3.26 32.34 4.06 # C 
775 65 1 0.1131 8.45 30.34 5.29 # H 
776 65 1 0.1131 7.49 31.24 6.53 # H 
777 65 1 0.1131 8.22 32.09 5.26 # H 
778 65 1 0.1131 3.12 32.84 5.03 # H 
779 65 1 0.1131 2.31 31.89 3.75 # H 
780 65 1 0.1131 3.54 33.08 3.31 # H 
781 66 3 -0.1327 0.68 7.4 29.16 # C 
782 66 4 -0.3806 -0.38 6.81 29.86 # O 
783 66 3 0.9238 -1.71 6.91 29.51 # C 
784 66 4 -0.5758 -2.03 7.51 28.5 # O 